LAMMPS data file generated from psf file
    3780 atoms
    5668 bonds
   11332 angles
   22658 dihedrals
       0 impropers
       8 atom types
      12 bond types
      56 angle types
     242 dihedral types
       0 improper types
-100.000000 100.000000 xlo xhi
-100.000000 100.000000 ylo yhi
-100.000000 8000.000000 zlo zhi


 Masses

       1 328.200000 # A1
       2 344.200000 # G1
       3 305.200000 # U1
       4 304.200000 # A1
       5 344.200000 # G1
       6 304.200000 # U1
       7 305.200000 # U1
       8 328.200000 # C1

 Atoms

1 1 1 -1.000000 -7.929000 -0.669000 0.000000 # AAAA RNA
2 1 2 -1.000000 2.904000 7.408000 2.800000 # GAAB RNA
3 1 3 -1.000000 -7.929000 -0.669000 5.600000 # UAAC RNA
4 1 1 -1.000000 -6.311000 -4.846000 8.400000 # AAAD RNA
5 1 2 -1.000000 -2.692000 -7.488000 11.200000 # GAAE RNA
6 1 3 -1.000000 1.779000 -7.756000 14.000000 # UAAF RNA
7 1 3 -1.000000 5.687000 -5.565000 16.800000 # UAAG RNA
8 1 4 -1.000000 7.792000 -1.611000 19.600000 # CAAH RNA
9 1 2 -1.000000 7.427000 2.854000 22.400000 # GAAI RNA
10 1 4 -1.000000 4.708000 6.415000 25.200000 # CAAJ RNA
11 1 4 -1.000000 0.497000 7.942000 28.000000 # CAAK RNA
12 1 3 -1.000000 -3.872000 6.951000 30.800000 # UAAL RNA
13 1 2 -1.000000 -7.014000 3.757000 33.600000 # GAAM RNA
14 1 3 -1.000000 -7.932000 -0.627000 36.400000 # UAAN RNA
15 1 2 -1.000000 -6.336000 -4.813000 39.200000 # GAAO RNA
16 1 3 -1.000000 -2.732000 -7.473000 42.000000 # UAAP RNA
17 1 2 -1.000000 1.739000 -7.765000 44.800000 # GAAQ RNA
18 1 1 -1.000000 5.658000 -5.595000 47.600000 # AAAR RNA
19 1 2 -1.000000 7.784000 -1.651000 50.400000 # GAAS RNA
20 1 4 -1.000000 7.442000 2.815000 53.200000 # CAAT RNA
21 1 3 -1.000000 4.742000 6.390000 56.000000 # UAAU RNA
22 1 2 -1.000000 0.538000 7.939000 58.800000 # GAAV RNA
23 1 1 -1.000000 -3.836000 6.971000 61.600000 # AAAW RNA
24 1 4 -1.000000 -6.994000 3.794000 64.400000 # CAAX RNA
25 1 1 -1.000000 -7.935000 -0.586000 67.200000 # AAAY RNA
26 1 1 -1.000000 -6.361000 -4.780000 70.000000 # AAAZ RNA
27 1 1 -1.000000 -2.771000 -7.459000 72.800000 # AAA0 RNA
28 1 4 -1.000000 1.698000 -7.774000 75.600000 # CAA1 RNA
29 1 3 -1.000000 5.629000 -5.624000 78.400000 # UAA2 RNA
30 1 3 -1.000000 7.775000 -1.692000 81.200000 # UAA3 RNA
31 1 1 -1.000000 7.457000 2.776000 84.000000 # AAA4 RNA
32 1 2 -1.000000 4.775000 6.365000 86.800000 # GAA5 RNA
33 1 3 -1.000000 0.580000 7.936000 89.600000 # UAA6 RNA
34 1 1 -1.000000 -3.799000 6.991000 92.400000 # AAA7 RNA
35 1 2 -1.000000 -6.974000 3.831000 95.200000 # GAA8 RNA
36 1 3 -1.000000 -7.938000 -0.544000 98.000000 # UAA9 RNA
37 1 2 -1.000000 -6.386000 -4.747000 100.800000 # GABA RNA
38 1 3 -1.000000 -2.810000 -7.444000 103.600000 # UABB RNA
39 1 3 -1.000000 1.657000 -7.783000 106.400000 # UABC RNA
40 1 3 -1.000000 5.599000 -5.654000 109.200000 # UABD RNA
41 1 2 -1.000000 7.766000 -1.733000 112.000000 # GABE RNA
42 1 3 -1.000000 7.471000 2.737000 114.800000 # UABF RNA
43 1 2 -1.000000 4.808000 6.340000 117.600000 # GABG RNA
44 1 1 -1.000000 0.621000 7.933000 120.400000 # AABH RNA
45 1 2 -1.000000 -3.763000 7.011000 123.200000 # GABI RNA
46 1 2 -1.000000 -6.954000 3.867000 126.000000 # GABJ RNA
47 1 1 -1.000000 -7.941000 -0.503000 128.800000 # AABK RNA
48 1 3 -1.000000 -6.411000 -4.713000 131.600000 # UABL RNA
49 1 3 -1.000000 -2.849000 -7.430000 134.400000 # UABM RNA
50 1 3 -1.000000 1.617000 -7.791000 137.200000 # UABN RNA
51 1 3 -1.000000 5.569000 -5.683000 140.000000 # UABO RNA
52 1 2 -1.000000 7.757000 -1.773000 142.800000 # GABP RNA
53 1 1 -1.000000 7.486000 2.698000 145.600000 # AABQ RNA
54 1 1 -1.000000 4.842000 6.315000 148.400000 # AABR RNA
55 1 4 -1.000000 0.663000 7.929000 151.200000 # CABS RNA
56 1 1 -1.000000 -3.726000 7.031000 154.000000 # AABT RNA
57 1 1 -1.000000 -6.934000 3.903000 156.800000 # AABU RNA
58 1 3 -1.000000 -7.944000 -0.461000 159.600000 # UABV RNA
59 1 3 -1.000000 -6.436000 -4.679000 162.400000 # UABW RNA
60 1 1 -1.000000 -2.888000 -7.415000 165.200000 # AABX RNA
61 1 1 -1.000000 1.576000 -7.799000 168.000000 # AABY RNA
62 1 4 -1.000000 5.540000 -5.712000 170.800000 # CABZ RNA
63 1 1 -1.000000 7.747000 -1.814000 173.600000 # AAB0 RNA
64 1 4 -1.000000 7.500000 2.659000 176.400000 # CAB1 RNA
65 1 1 -1.000000 4.875000 6.289000 179.200000 # AAB2 RNA
66 1 2 -1.000000 0.704000 7.926000 182.000000 # GAB3 RNA
67 1 3 -1.000000 -3.689000 7.050000 184.800000 # UAB4 RNA
68 1 2 -1.000000 -6.913000 3.940000 187.600000 # GAB5 RNA
69 1 4 -1.000000 -7.946000 -0.419000 190.400000 # CAB6 RNA
70 1 2 -1.000000 -6.460000 -4.646000 193.200000 # GAB7 RNA
71 1 1 -1.000000 -2.926000 -7.399000 196.000000 # AAB8 RNA
72 1 2 -1.000000 1.535000 -7.808000 198.800000 # GAB9 RNA
73 1 4 -1.000000 5.510000 -5.741000 201.600000 # CACA RNA
74 1 3 -1.000000 7.738000 -1.855000 204.400000 # UACB RNA
75 1 2 -1.000000 7.513000 2.620000 207.200000 # GACC RNA
76 1 3 -1.000000 4.907000 6.264000 210.000000 # UACD RNA
77 1 3 -1.000000 0.746000 7.922000 212.800000 # UACE RNA
78 1 3 -1.000000 -3.652000 7.069000 215.600000 # UACF RNA
79 1 4 -1.000000 -6.893000 3.976000 218.400000 # CACG RNA
80 1 3 -1.000000 -7.948000 -0.378000 221.200000 # UACH RNA
81 1 3 -1.000000 -6.484000 -4.612000 224.000000 # UACI RNA
82 1 1 -1.000000 -2.965000 -7.384000 226.800000 # AACJ RNA
83 1 2 -1.000000 1.494000 -7.816000 229.600000 # GACK RNA
84 1 4 -1.000000 5.479000 -5.770000 232.400000 # CACL RNA
85 1 1 -1.000000 7.728000 -1.895000 235.200000 # AACM RNA
86 1 4 -1.000000 7.527000 2.580000 238.000000 # CACN RNA
87 1 2 -1.000000 4.940000 6.238000 240.800000 # GACO RNA
88 1 1 -1.000000 0.787000 7.918000 243.600000 # AACP RNA
89 1 1 -1.000000 -3.615000 7.088000 246.400000 # AACQ RNA
90 1 2 -1.000000 -6.872000 4.012000 249.200000 # GACR RNA
91 1 1 -1.000000 -7.950000 -0.336000 252.000000 # AACS RNA
92 1 3 -1.000000 -6.508000 -4.578000 254.800000 # UACT RNA
93 1 4 -1.000000 -3.004000 -7.368000 257.600000 # CACU RNA
94 1 3 -1.000000 1.453000 -7.823000 260.400000 # UACV RNA
95 1 4 -1.000000 5.449000 -5.798000 263.200000 # CACW RNA
96 1 2 -1.000000 7.718000 -1.935000 266.000000 # GACX RNA
97 1 1 -1.000000 7.540000 2.541000 268.800000 # AACY RNA
98 1 3 -1.000000 4.973000 6.212000 271.600000 # UACZ RNA
99 1 2 -1.000000 0.829000 7.914000 274.400000 # GAC0 RNA
100 1 3 -1.000000 -3.578000 7.107000 277.200000 # UAC1 RNA
101 1 4 -1.000000 -6.850000 4.048000 280.000000 # CAC2 RNA
102 1 3 -1.000000 -7.952000 -0.295000 282.800000 # UAC3 RNA
103 1 1 -1.000000 -6.532000 -4.544000 285.600000 # AAC4 RNA
104 1 1 -1.000000 -3.042000 -7.352000 288.400000 # AAC5 RNA
105 1 2 -1.000000 1.412000 -7.831000 291.200000 # GAC6 RNA
106 1 1 -1.000000 5.419000 -5.827000 294.000000 # AAC7 RNA
107 1 1 -1.000000 7.708000 -1.976000 296.800000 # AAC8 RNA
108 1 1 -1.000000 7.554000 2.501000 299.600000 # AAC9 RNA
109 1 4 -1.000000 5.005000 6.186000 302.400000 # CADA RNA
110 1 4 -1.000000 0.870000 7.909000 305.200000 # CADB RNA
111 1 1 -1.000000 -3.541000 7.126000 308.000000 # AADC RNA
112 1 2 -1.000000 -6.829000 4.084000 310.800000 # GADD RNA
113 1 2 -1.000000 -7.953000 -0.253000 313.600000 # GADE RNA
114 1 1 -1.000000 -6.556000 -4.509000 316.400000 # AADF RNA
115 1 2 -1.000000 -3.081000 -7.336000 319.200000 # GADG RNA
116 1 2 -1.000000 1.371000 -7.838000 322.000000 # GADH RNA
117 1 2 -1.000000 5.388000 -5.855000 324.800000 # GADI RNA
118 1 4 -1.000000 7.697000 -2.016000 327.600000 # CADJ RNA
119 1 4 -1.000000 7.567000 2.462000 330.400000 # CADK RNA
120 1 4 -1.000000 5.037000 6.159000 333.200000 # CADL RNA
121 1 2 -1.000000 0.912000 7.905000 336.000000 # GADM RNA
122 1 2 -1.000000 -3.503000 7.144000 338.800000 # GADN RNA
123 1 4 -1.000000 -6.808000 4.119000 341.600000 # CADO RNA
124 1 1 -1.000000 -7.954000 -0.211000 344.400000 # AADP RNA
125 1 1 -1.000000 -6.579000 -4.475000 347.200000 # AADQ RNA
126 1 1 -1.000000 -3.119000 -7.320000 350.000000 # AADR RNA
127 1 1 -1.000000 1.330000 -7.845000 352.800000 # AADS RNA
128 1 2 -1.000000 5.357000 -5.883000 355.600000 # GADT RNA
129 1 4 -1.000000 7.687000 -2.056000 358.400000 # CADU RNA
130 1 4 -1.000000 7.579000 2.422000 361.200000 # CADV RNA
131 1 2 -1.000000 5.070000 6.133000 364.000000 # GADW RNA
132 1 2 -1.000000 0.953000 7.900000 366.800000 # GADX RNA
133 1 2 -1.000000 -3.466000 7.163000 369.600000 # GADY RNA
134 1 4 -1.000000 -6.786000 4.155000 372.400000 # CADZ RNA
135 1 3 -1.000000 -7.955000 -0.170000 375.200000 # UAD0 RNA
136 1 2 -1.000000 -6.603000 -4.441000 378.000000 # GAD1 RNA
137 1 3 -1.000000 -3.157000 -7.304000 380.800000 # UAD2 RNA
138 1 4 -1.000000 1.289000 -7.852000 383.600000 # CAD3 RNA
139 1 1 -1.000000 5.327000 -5.911000 386.400000 # AAD4 RNA
140 1 1 -1.000000 7.676000 -2.097000 389.200000 # AAD5 RNA
141 1 3 -1.000000 7.592000 2.382000 392.000000 # UAD6 RNA
142 1 1 -1.000000 5.102000 6.106000 394.800000 # AAD7 RNA
143 1 3 -1.000000 0.994000 7.895000 397.600000 # UAD8 RNA
144 1 2 -1.000000 -3.428000 7.181000 400.400000 # GAD9 RNA
145 1 4 -1.000000 -6.764000 4.190000 403.200000 # CAEA RNA
146 1 3 -1.000000 -7.956000 -0.128000 406.000000 # UAEB RNA
147 1 1 -1.000000 -6.626000 -4.406000 408.800000 # AAEC RNA
148 1 1 -1.000000 -3.196000 -7.287000 411.600000 # AAED RNA
149 1 1 -1.000000 1.248000 -7.859000 414.400000 # AAEE RNA
150 1 1 -1.000000 5.296000 -5.939000 417.200000 # AAEF RNA
151 1 4 -1.000000 7.665000 -2.137000 420.000000 # CAEG RNA
152 1 2 -1.000000 7.604000 2.343000 422.800000 # GAEH RNA
153 1 4 -1.000000 5.134000 6.080000 425.600000 # CAEI RNA
154 1 2 -1.000000 1.036000 7.889000 428.400000 # GAEJ RNA
155 1 2 -1.000000 -3.391000 7.198000 431.200000 # GAEK RNA
156 1 1 -1.000000 -6.742000 4.226000 434.000000 # AAEL RNA
157 1 1 -1.000000 -7.957000 -0.086000 436.800000 # AAEM RNA
158 1 3 -1.000000 -6.649000 -4.371000 439.600000 # UAEN RNA
159 1 2 -1.000000 -3.234000 -7.270000 442.400000 # GAEO RNA
160 1 4 -1.000000 1.207000 -7.865000 445.200000 # CAEP RNA
161 1 4 -1.000000 5.264000 -5.967000 448.000000 # CAEQ RNA
162 1 4 -1.000000 7.653000 -2.177000 450.800000 # CAER RNA
163 1 4 -1.000000 7.617000 2.303000 453.600000 # CAES RNA
164 1 2 -1.000000 5.165000 6.053000 456.400000 # GAET RNA
165 1 4 -1.000000 1.077000 7.884000 459.200000 # CAEU RNA
166 1 2 -1.000000 -3.353000 7.216000 462.000000 # GAEV RNA
167 1 3 -1.000000 -6.720000 4.261000 464.800000 # UAEW RNA
168 1 2 -1.000000 -7.957000 -0.045000 467.600000 # GAEX RNA
169 1 3 -1.000000 -6.672000 -4.336000 470.400000 # UAEY RNA
170 1 3 -1.000000 -3.272000 -7.253000 473.200000 # UAEZ RNA
171 1 2 -1.000000 1.165000 -7.871000 476.000000 # GAE0 RNA
172 1 3 -1.000000 5.233000 -5.994000 478.800000 # UAE1 RNA
173 1 4 -1.000000 7.642000 -2.217000 481.600000 # CAE2 RNA
174 1 4 -1.000000 7.628000 2.263000 484.400000 # CAE3 RNA
175 1 3 -1.000000 5.197000 6.025000 487.200000 # UAE4 RNA
176 1 3 -1.000000 1.118000 7.878000 490.000000 # UAE5 RNA
177 1 2 -1.000000 -3.315000 7.234000 492.800000 # GAE6 RNA
178 1 1 -1.000000 -6.698000 4.296000 495.600000 # AAE7 RNA
179 1 4 -1.000000 -7.957000 -0.003000 498.400000 # CAE8 RNA
180 1 3 -1.000000 -6.694000 -4.301000 501.200000 # UAE9 RNA
181 1 2 -1.000000 -3.310000 -7.236000 504.000000 # GAFA RNA
182 1 2 -1.000000 1.124000 -7.877000 506.800000 # GAFB RNA
183 1 1 -1.000000 5.202000 -6.021000 509.600000 # AAFC RNA
184 1 4 -1.000000 7.630000 -2.257000 512.400000 # CAFD RNA
185 1 3 -1.000000 7.640000 2.223000 515.200000 # UAFE RNA
186 1 2 -1.000000 5.228000 5.998000 518.000000 # GAFF RNA
187 1 1 -1.000000 1.159000 7.872000 520.800000 # AAFG RNA
188 1 1 -1.000000 -3.277000 7.251000 523.600000 # AAFH RNA
189 1 2 -1.000000 -6.675000 4.331000 526.400000 # GAFI RNA
190 1 1 -1.000000 -7.957000 0.039000 529.200000 # AAFJ RNA
191 1 2 -1.000000 -6.717000 -4.266000 532.000000 # GAFK RNA
192 1 2 -1.000000 -3.347000 -7.219000 534.800000 # GAFL RNA
193 1 2 -1.000000 1.083000 -7.883000 537.600000 # GAFM RNA
194 1 4 -1.000000 5.170000 -6.049000 540.400000 # CAFN RNA
195 1 1 -1.000000 7.618000 -2.297000 543.200000 # AAFO RNA
196 1 1 -1.000000 7.652000 2.183000 546.000000 # AAFP RNA
197 1 3 -1.000000 5.260000 5.971000 548.800000 # UAFQ RNA
198 1 2 -1.000000 1.201000 7.866000 551.600000 # GAFR RNA
199 1 3 -1.000000 -3.239000 7.268000 554.400000 # UAFS RNA
200 1 3 -1.000000 -6.652000 4.366000 557.200000 # UAFT RNA
201 1 2 -1.000000 -7.957000 0.080000 560.000000 # GAFU RNA
202 1 1 -1.000000 -6.739000 -4.231000 562.800000 # AAFV RNA
203 1 2 -1.000000 -3.385000 -7.201000 565.600000 # GAFW RNA
204 1 4 -1.000000 1.042000 -7.889000 568.400000 # CAFX RNA
205 1 4 -1.000000 5.138000 -6.076000 571.200000 # CAFY RNA
206 1 3 -1.000000 7.606000 -2.337000 574.000000 # UAFZ RNA
207 1 2 -1.000000 7.663000 2.143000 576.800000 # GAF0 RNA
208 1 1 -1.000000 5.291000 5.943000 579.600000 # AAF1 RNA
209 1 3 -1.000000 1.242000 7.860000 582.400000 # UAF2 RNA
210 1 3 -1.000000 -3.201000 7.285000 585.200000 # UAF3 RNA
211 1 2 -1.000000 -6.629000 4.401000 588.000000 # GAF4 RNA
212 1 1 -1.000000 -7.956000 0.122000 590.800000 # AAF5 RNA
213 1 4 -1.000000 -6.761000 -4.196000 593.600000 # CAF6 RNA
214 1 2 -1.000000 -3.423000 -7.183000 596.400000 # GAF7 RNA
215 1 2 -1.000000 1.000000 -7.894000 599.200000 # GAF8 RNA
216 1 3 -1.000000 5.106000 -6.102000 602.000000 # UAF9 RNA
217 1 1 -1.000000 7.594000 -2.377000 604.800000 # AAGA RNA
218 1 2 -1.000000 7.674000 2.103000 607.600000 # GAGB RNA
219 1 2 -1.000000 5.322000 5.915000 610.400000 # GAGC RNA
220 1 2 -1.000000 1.283000 7.853000 613.200000 # GAGD RNA
221 1 2 -1.000000 -3.163000 7.301000 616.000000 # GAGE RNA
222 1 2 -1.000000 -6.606000 4.435000 618.800000 # GAGF RNA
223 1 4 -1.000000 -7.955000 0.164000 621.600000 # CAGG RNA
224 1 4 -1.000000 -6.783000 -4.160000 624.400000 # CAGH RNA
225 1 4 -1.000000 -3.460000 -7.165000 627.200000 # CAGI RNA
226 1 1 -1.000000 0.959000 -7.899000 630.000000 # AAGJ RNA
227 1 4 -1.000000 5.074000 -6.129000 632.800000 # CAGK RNA
228 1 1 -1.000000 7.581000 -2.416000 635.600000 # AAGL RNA
229 1 4 -1.000000 7.685000 2.062000 638.400000 # CAGM RNA
230 1 2 -1.000000 5.353000 5.887000 641.200000 # GAGN RNA
231 1 2 -1.000000 1.324000 7.846000 644.000000 # GAGO RNA
232 1 3 -1.000000 -3.125000 7.318000 646.800000 # UAGP RNA
233 1 3 -1.000000 -6.583000 4.470000 649.600000 # UAGQ RNA
234 1 3 -1.000000 -7.954000 0.205000 652.400000 # UAGR RNA
235 1 2 -1.000000 -6.805000 -4.125000 655.200000 # GAGS RNA
236 1 3 -1.000000 -3.498000 -7.147000 658.000000 # UAGT RNA
237 1 2 -1.000000 0.918000 -7.904000 660.800000 # GAGU RNA
238 1 3 -1.000000 5.042000 -6.156000 663.600000 # UAGV RNA
239 1 3 -1.000000 7.569000 -2.456000 666.400000 # UAGW RNA
240 1 2 -1.000000 7.696000 2.022000 669.200000 # GAGX RNA
241 1 2 -1.000000 5.384000 5.859000 672.000000 # GAGY RNA
242 1 4 -1.000000 1.365000 7.839000 674.800000 # CAGZ RNA
243 1 3 -1.000000 -3.086000 7.334000 677.600000 # UAG0 RNA
244 1 4 -1.000000 -6.559000 4.504000 680.400000 # CAG1 RNA
245 1 3 -1.000000 -7.953000 0.247000 683.200000 # UAG2 RNA
246 1 4 -1.000000 -6.826000 -4.089000 686.000000 # CAG3 RNA
247 1 3 -1.000000 -3.535000 -7.129000 688.800000 # UAG4 RNA
248 1 3 -1.000000 0.876000 -7.909000 691.600000 # UAG5 RNA
249 1 2 -1.000000 5.010000 -6.182000 694.400000 # GAG6 RNA
250 1 2 -1.000000 7.556000 -2.496000 697.200000 # GAG7 RNA
251 1 4 -1.000000 7.706000 1.982000 700.000000 # CAG8 RNA
252 1 2 -1.000000 5.414000 5.831000 702.800000 # GAG9 RNA
253 1 3 -1.000000 1.406000 7.832000 705.600000 # UAHA RNA
254 1 3 -1.000000 -3.048000 7.350000 708.400000 # UAHB RNA
255 1 3 -1.000000 -6.536000 4.539000 711.200000 # UAHC RNA
256 1 3 -1.000000 -7.952000 0.289000 714.000000 # UAHD RNA
257 1 3 -1.000000 -6.847000 -4.053000 716.800000 # UAHE RNA
258 1 3 -1.000000 -3.573000 -7.110000 719.600000 # UAHF RNA
259 1 1 -1.000000 0.835000 -7.913000 722.400000 # AAHG RNA
260 1 2 -1.000000 4.977000 -6.208000 725.200000 # GAHH RNA
261 1 2 -1.000000 7.542000 -2.535000 728.000000 # GAHI RNA
262 1 3 -1.000000 7.717000 1.941000 730.800000 # UAHJ RNA
263 1 3 -1.000000 5.445000 5.803000 733.600000 # UAHK RNA
264 1 4 -1.000000 1.447000 7.824000 736.400000 # CAHL RNA
265 1 1 -1.000000 -3.009000 7.366000 739.200000 # AAHM RNA
266 1 4 -1.000000 -6.512000 4.573000 742.000000 # CAHN RNA
267 1 2 -1.000000 -7.950000 0.330000 744.800000 # GAHO RNA
268 1 2 -1.000000 -6.869000 -4.017000 747.600000 # GAHP RNA
269 1 4 -1.000000 -3.610000 -7.091000 750.400000 # CAHQ RNA
270 1 1 -1.000000 0.793000 -7.917000 753.200000 # AAHR RNA
271 1 1 -1.000000 4.945000 -6.234000 756.000000 # AAHS RNA
272 1 3 -1.000000 7.529000 -2.575000 758.800000 # UAHT RNA
273 1 3 -1.000000 7.727000 1.901000 761.600000 # UAHU RNA
274 1 2 -1.000000 5.475000 5.774000 764.400000 # GAHV RNA
275 1 4 -1.000000 1.488000 7.817000 767.200000 # CAHW RNA
276 1 3 -1.000000 -2.971000 7.382000 770.000000 # UAHX RNA
277 1 4 -1.000000 -6.488000 4.607000 772.800000 # CAHY RNA
278 1 4 -1.000000 -7.948000 0.372000 775.600000 # CAHZ RNA
279 1 2 -1.000000 -6.889000 -3.981000 778.400000 # GAH0 RNA
280 1 1 -1.000000 -3.647000 -7.072000 781.200000 # AAH1 RNA
281 1 4 -1.000000 0.752000 -7.921000 784.000000 # CAH2 RNA
282 1 4 -1.000000 4.912000 -6.260000 786.800000 # CAH3 RNA
283 1 4 -1.000000 7.515000 -2.614000 789.600000 # CAH4 RNA
284 1 2 -1.000000 7.736000 1.860000 792.400000 # GAH5 RNA
285 1 2 -1.000000 5.505000 5.745000 795.200000 # GAH6 RNA
286 1 2 -1.000000 1.529000 7.809000 798.000000 # GAH7 RNA
287 1 4 -1.000000 -2.932000 7.397000 800.800000 # CAH8 RNA
288 1 1 -1.000000 -6.464000 4.641000 803.600000 # AAH9 RNA
289 1 2 -1.000000 -7.946000 0.413000 806.400000 # GAIA RNA
290 1 3 -1.000000 -6.910000 -3.945000 809.200000 # UAIB RNA
291 1 2 -1.000000 -3.684000 -7.053000 812.000000 # GAIC RNA
292 1 4 -1.000000 0.710000 -7.925000 814.800000 # CAID RNA
293 1 3 -1.000000 4.879000 -6.285000 817.600000 # UAIE RNA
294 1 2 -1.000000 7.502000 -2.653000 820.400000 # GAIF RNA
295 1 2 -1.000000 7.746000 1.820000 823.200000 # GAIG RNA
296 1 1 -1.000000 5.535000 5.716000 826.000000 # AAIH RNA
297 1 3 -1.000000 1.570000 7.801000 828.800000 # UAII RNA
298 1 4 -1.000000 -2.893000 7.412000 831.600000 # CAIJ RNA
299 1 2 -1.000000 -6.439000 4.675000 834.400000 # GAIK RNA
300 1 1 -1.000000 -7.944000 0.455000 837.200000 # AAIL RNA
301 1 3 -1.000000 -6.931000 -3.909000 840.000000 # UAIM RNA
302 1 2 -1.000000 -3.721000 -7.034000 842.800000 # GAIN RNA
303 1 2 -1.000000 0.669000 -7.929000 845.600000 # GAIO RNA
304 1 1 -1.000000 4.846000 -6.311000 848.400000 # AAIP RNA
305 1 2 -1.000000 7.488000 -2.692000 851.200000 # GAIQ RNA
306 1 1 -1.000000 7.756000 1.779000 854.000000 # AAIR RNA
307 1 1 -1.000000 5.565000 5.687000 856.800000 # AAIS RNA
308 1 2 -1.000000 1.611000 7.792000 859.600000 # GAIT RNA
309 1 3 -1.000000 -2.854000 7.427000 862.400000 # UAIU RNA
310 1 2 -1.000000 -6.415000 4.708000 865.200000 # GAIV RNA
311 1 3 -1.000000 -7.942000 0.497000 868.000000 # UAIW RNA
312 1 2 -1.000000 -6.951000 -3.872000 870.800000 # GAIX RNA
313 1 1 -1.000000 -3.757000 -7.014000 873.600000 # AAIY RNA
314 1 1 -1.000000 0.627000 -7.932000 876.400000 # AAIZ RNA
315 1 4 -1.000000 4.813000 -6.336000 879.200000 # CAI0 RNA
316 1 1 -1.000000 7.473000 -2.732000 882.000000 # AAI1 RNA
317 1 1 -1.000000 7.765000 1.739000 884.800000 # AAI2 RNA
318 1 1 -1.000000 5.595000 5.658000 887.600000 # AAI3 RNA
319 1 4 -1.000000 1.651000 7.784000 890.400000 # CAI4 RNA
320 1 1 -1.000000 -2.815000 7.442000 893.200000 # AAI5 RNA
321 1 1 -1.000000 -6.390000 4.742000 896.000000 # AAI6 RNA
322 1 1 -1.000000 -7.939000 0.538000 898.800000 # AAI7 RNA
323 1 4 -1.000000 -6.971000 -3.836000 901.600000 # CAI8 RNA
324 1 1 -1.000000 -3.794000 -6.994000 904.400000 # AAI9 RNA
325 1 2 -1.000000 0.586000 -7.935000 907.200000 # GAJA RNA
326 1 4 -1.000000 4.780000 -6.361000 910.000000 # CAJB RNA
327 1 2 -1.000000 7.459000 -2.771000 912.800000 # GAJC RNA
328 1 1 -1.000000 7.774000 1.698000 915.600000 # AAJD RNA
329 1 3 -1.000000 5.624000 5.629000 918.400000 # UAJE RNA
330 1 2 -1.000000 1.692000 7.775000 921.200000 # GAJF RNA
331 1 1 -1.000000 -2.776000 7.457000 924.000000 # AAJG RNA
332 1 1 -1.000000 -6.365000 4.775000 926.800000 # AAJH RNA
333 1 1 -1.000000 -7.936000 0.580000 929.600000 # AAJI RNA
334 1 4 -1.000000 -6.991000 -3.799000 932.400000 # CAJJ RNA
335 1 1 -1.000000 -3.831000 -6.974000 935.200000 # AAJK RNA
336 1 3 -1.000000 0.544000 -7.938000 938.000000 # UAJL RNA
337 1 4 -1.000000 4.747000 -6.386000 940.800000 # CAJM RNA
338 1 3 -1.000000 7.444000 -2.810000 943.600000 # UAJN RNA
339 1 4 -1.000000 7.783000 1.657000 946.400000 # CAJO RNA
340 1 4 -1.000000 5.654000 5.599000 949.200000 # CAJP RNA
341 1 3 -1.000000 1.733000 7.766000 952.000000 # UAJQ RNA
342 1 2 -1.000000 -2.737000 7.471000 954.800000 # GAJR RNA
343 1 1 -1.000000 -6.340000 4.808000 957.600000 # AAJS RNA
344 1 2 -1.000000 -7.933000 0.621000 960.400000 # GAJT RNA
345 1 3 -1.000000 -7.011000 -3.763000 963.200000 # UAJU RNA
346 1 3 -1.000000 -3.867000 -6.954000 966.000000 # UAJV RNA
347 1 3 -1.000000 0.503000 -7.941000 968.800000 # UAJW RNA
348 1 4 -1.000000 4.713000 -6.411000 971.600000 # CAJX RNA
349 1 1 -1.000000 7.430000 -2.849000 974.400000 # AAJY RNA
350 1 1 -1.000000 7.791000 1.617000 977.200000 # AAJZ RNA
351 1 2 -1.000000 5.683000 5.569000 980.000000 # GAJ0 RNA
352 1 1 -1.000000 1.773000 7.757000 982.800000 # AAJ1 RNA
353 1 1 -1.000000 -2.698000 7.486000 985.600000 # AAJ2 RNA
354 1 2 -1.000000 -6.315000 4.842000 988.400000 # GAJ3 RNA
355 1 2 -1.000000 -7.929000 0.663000 991.200000 # GAJ4 RNA
356 1 1 -1.000000 -7.031000 -3.726000 994.000000 # AAJ5 RNA
357 1 1 -1.000000 -3.903000 -6.934000 996.800000 # AAJ6 RNA
358 1 4 -1.000000 0.461000 -7.944000 999.600000 # CAJ7 RNA
359 1 3 -1.000000 4.679000 -6.436000 1002.400000 # UAJ8 RNA
360 1 1 -1.000000 7.415000 -2.888000 1005.200000 # AAJ9 RNA
361 1 2 -1.000000 7.799000 1.576000 1008.000000 # GAKA RNA
362 1 2 -1.000000 5.712000 5.540000 1010.800000 # GAKB RNA
363 1 1 -1.000000 1.814000 7.747000 1013.600000 # AAKC RNA
364 1 1 -1.000000 -2.659000 7.500000 1016.400000 # AAKD RNA
365 1 4 -1.000000 -6.289000 4.875000 1019.200000 # CAKE RNA
366 1 4 -1.000000 -7.926000 0.704000 1022.000000 # CAKF RNA
367 1 3 -1.000000 -7.050000 -3.689000 1024.800000 # UAKG RNA
368 1 3 -1.000000 -3.940000 -6.913000 1027.600000 # UAKH RNA
369 1 2 -1.000000 0.419000 -7.946000 1030.400000 # GAKI RNA
370 1 1 -1.000000 4.646000 -6.460000 1033.200000 # AAKJ RNA
371 1 4 -1.000000 7.399000 -2.926000 1036.000000 # CAKK RNA
372 1 4 -1.000000 7.808000 1.535000 1038.800000 # CAKL RNA
373 1 1 -1.000000 5.741000 5.510000 1041.600000 # AAKM RNA
374 1 2 -1.000000 1.855000 7.738000 1044.400000 # GAKN RNA
375 1 3 -1.000000 -2.620000 7.513000 1047.200000 # UAKO RNA
376 1 2 -1.000000 -6.264000 4.907000 1050.000000 # GAKP RNA
377 1 4 -1.000000 -7.922000 0.746000 1052.800000 # CAKQ RNA
378 1 3 -1.000000 -7.069000 -3.652000 1055.600000 # UAKR RNA
379 1 1 -1.000000 -3.976000 -6.893000 1058.400000 # AAKS RNA
380 1 3 -1.000000 0.378000 -7.948000 1061.200000 # UAKT RNA
381 1 4 -1.000000 4.612000 -6.484000 1064.000000 # CAKU RNA
382 1 1 -1.000000 7.384000 -2.965000 1066.800000 # AAKV RNA
383 1 1 -1.000000 7.816000 1.494000 1069.600000 # AAKW RNA
384 1 4 -1.000000 5.770000 5.479000 1072.400000 # CAKX RNA
385 1 4 -1.000000 1.895000 7.728000 1075.200000 # CAKY RNA
386 1 2 -1.000000 -2.580000 7.527000 1078.000000 # GAKZ RNA
387 1 2 -1.000000 -6.238000 4.940000 1080.800000 # GAK0 RNA
388 1 4 -1.000000 -7.918000 0.787000 1083.600000 # CAK1 RNA
389 1 2 -1.000000 -7.088000 -3.615000 1086.400000 # GAK2 RNA
390 1 2 -1.000000 -4.012000 -6.872000 1089.200000 # GAK3 RNA
391 1 1 -1.000000 0.336000 -7.950000 1092.000000 # AAK4 RNA
392 1 2 -1.000000 4.578000 -6.508000 1094.800000 # GAK5 RNA
393 1 4 -1.000000 7.368000 -3.004000 1097.600000 # CAK6 RNA
394 1 3 -1.000000 7.823000 1.453000 1100.400000 # UAK7 RNA
395 1 4 -1.000000 5.798000 5.449000 1103.200000 # CAK8 RNA
396 1 1 -1.000000 1.935000 7.718000 1106.000000 # AAK9 RNA
397 1 1 -1.000000 -2.541000 7.540000 1108.800000 # AALA RNA
398 1 1 -1.000000 -6.212000 4.973000 1111.600000 # AALB RNA
399 1 1 -1.000000 -7.914000 0.829000 1114.400000 # AALC RNA
400 1 4 -1.000000 -7.107000 -3.578000 1117.200000 # CALD RNA
401 1 1 -1.000000 -4.048000 -6.850000 1120.000000 # AALE RNA
402 1 2 -1.000000 0.295000 -7.952000 1122.800000 # GALF RNA
403 1 1 -1.000000 4.544000 -6.532000 1125.600000 # AALG RNA
404 1 1 -1.000000 7.352000 -3.042000 1128.400000 # AALH RNA
405 1 2 -1.000000 7.831000 1.412000 1131.200000 # GALI RNA
406 1 1 -1.000000 5.827000 5.419000 1134.000000 # AALJ RNA
407 1 1 -1.000000 1.976000 7.708000 1136.800000 # AALK RNA
408 1 2 -1.000000 -2.501000 7.554000 1139.600000 # GALL RNA
409 1 1 -1.000000 -6.186000 5.005000 1142.400000 # AALM RNA
410 1 2 -1.000000 -7.909000 0.870000 1145.200000 # GALN RNA
411 1 1 -1.000000 -7.126000 -3.541000 1148.000000 # AALO RNA
412 1 2 -1.000000 -4.084000 -6.829000 1150.800000 # GALP RNA
413 1 2 -1.000000 0.253000 -7.953000 1153.600000 # GALQ RNA
414 1 1 -1.000000 4.509000 -6.556000 1156.400000 # AALR RNA
415 1 2 -1.000000 7.336000 -3.081000 1159.200000 # GALS RNA
416 1 2 -1.000000 7.838000 1.371000 1162.000000 # GALT RNA
417 1 1 -1.000000 5.855000 5.388000 1164.800000 # AALU RNA
418 1 1 -1.000000 2.016000 7.697000 1167.600000 # AALV RNA
419 1 1 -1.000000 -2.462000 7.567000 1170.400000 # AALW RNA
420 1 2 -1.000000 -6.159000 5.037000 1173.200000 # GALX RNA
421 1 1 -1.000000 -7.905000 0.912000 1176.000000 # AALY RNA
422 1 4 -1.000000 -7.144000 -3.503000 1178.800000 # CALZ RNA
423 1 4 -1.000000 -4.119000 -6.808000 1181.600000 # CAL0 RNA
424 1 2 -1.000000 0.211000 -7.954000 1184.400000 # GAL1 RNA
425 1 2 -1.000000 4.475000 -6.579000 1187.200000 # GAL2 RNA
426 1 1 -1.000000 7.320000 -3.119000 1190.000000 # AAL3 RNA
427 1 1 -1.000000 7.845000 1.330000 1192.800000 # AAL4 RNA
428 1 3 -1.000000 5.883000 5.357000 1195.600000 # UAL5 RNA
429 1 3 -1.000000 2.056000 7.687000 1198.400000 # UAL6 RNA
430 1 2 -1.000000 -2.422000 7.579000 1201.200000 # GAL7 RNA
431 1 4 -1.000000 -6.133000 5.070000 1204.000000 # CAL8 RNA
432 1 1 -1.000000 -7.900000 0.953000 1206.800000 # AAL9 RNA
433 1 3 -1.000000 -7.163000 -3.466000 1209.600000 # UAMA RNA
434 1 3 -1.000000 -4.155000 -6.786000 1212.400000 # UAMB RNA
435 1 4 -1.000000 0.170000 -7.955000 1215.200000 # CAMC RNA
436 1 1 -1.000000 4.441000 -6.603000 1218.000000 # AAMD RNA
437 1 3 -1.000000 7.304000 -3.157000 1220.800000 # UAME RNA
438 1 2 -1.000000 7.852000 1.289000 1223.600000 # GAMF RNA
439 1 1 -1.000000 5.911000 5.327000 1226.400000 # AAMG RNA
440 1 3 -1.000000 2.097000 7.676000 1229.200000 # UAMH RNA
441 1 3 -1.000000 -2.382000 7.592000 1232.000000 # UAMI RNA
442 1 2 -1.000000 -6.106000 5.102000 1234.800000 # GAMJ RNA
443 1 2 -1.000000 -7.895000 0.994000 1237.600000 # GAMK RNA
444 1 4 -1.000000 -7.181000 -3.428000 1240.400000 # CAML RNA
445 1 3 -1.000000 -4.190000 -6.764000 1243.200000 # UAMM RNA
446 1 3 -1.000000 0.128000 -7.956000 1246.000000 # UAMN RNA
447 1 2 -1.000000 4.406000 -6.626000 1248.800000 # GAMO RNA
448 1 1 -1.000000 7.287000 -3.196000 1251.600000 # AAMP RNA
449 1 3 -1.000000 7.859000 1.248000 1254.400000 # UAMQ RNA
450 1 3 -1.000000 5.939000 5.296000 1257.200000 # UAMR RNA
451 1 2 -1.000000 2.137000 7.665000 1260.000000 # GAMS RNA
452 1 4 -1.000000 -2.343000 7.604000 1262.800000 # CAMT RNA
453 1 3 -1.000000 -6.080000 5.134000 1265.600000 # UAMU RNA
454 1 2 -1.000000 -7.889000 1.036000 1268.400000 # GAMV RNA
455 1 2 -1.000000 -7.198000 -3.391000 1271.200000 # GAMW RNA
456 1 4 -1.000000 -4.226000 -6.742000 1274.000000 # CAMX RNA
457 1 2 -1.000000 0.086000 -7.957000 1276.800000 # GAMY RNA
458 1 3 -1.000000 4.371000 -6.649000 1279.600000 # UAMZ RNA
459 1 2 -1.000000 7.270000 -3.234000 1282.400000 # GAM0 RNA
460 1 2 -1.000000 7.865000 1.207000 1285.200000 # GAM1 RNA
461 1 2 -1.000000 5.967000 5.264000 1288.000000 # GAM2 RNA
462 1 1 -1.000000 2.177000 7.653000 1290.800000 # AAM3 RNA
463 1 2 -1.000000 -2.303000 7.617000 1293.600000 # GAM4 RNA
464 1 4 -1.000000 -6.053000 5.165000 1296.400000 # CAM5 RNA
465 1 1 -1.000000 -7.884000 1.077000 1299.200000 # AAM6 RNA
466 1 2 -1.000000 -7.216000 -3.353000 1302.000000 # GAM7 RNA
467 1 3 -1.000000 -4.261000 -6.720000 1304.800000 # UAM8 RNA
468 1 4 -1.000000 0.045000 -7.957000 1307.600000 # CAM9 RNA
469 1 1 -1.000000 4.336000 -6.672000 1310.400000 # AANA RNA
470 1 4 -1.000000 7.253000 -3.272000 1313.200000 # CANB RNA
471 1 3 -1.000000 7.871000 1.165000 1316.000000 # UANC RNA
472 1 4 -1.000000 5.994000 5.233000 1318.800000 # CAND RNA
473 1 3 -1.000000 2.217000 7.642000 1321.600000 # UANE RNA
474 1 4 -1.000000 -2.263000 7.628000 1324.400000 # CANF RNA
475 1 3 -1.000000 -6.025000 5.197000 1327.200000 # UANG RNA
476 1 4 -1.000000 -7.878000 1.118000 1330.000000 # CANH RNA
477 1 4 -1.000000 -7.234000 -3.315000 1332.800000 # CANI RNA
478 1 1 -1.000000 -4.296000 -6.698000 1335.600000 # AANJ RNA
479 1 1 -1.000000 0.003000 -7.957000 1338.400000 # AANK RNA
480 1 4 -1.000000 4.301000 -6.694000 1341.200000 # CANL RNA
481 1 3 -1.000000 7.236000 -3.310000 1344.000000 # UANM RNA
482 1 3 -1.000000 7.877000 1.124000 1346.800000 # UANN RNA
483 1 3 -1.000000 6.021000 5.202000 1349.600000 # UANO RNA
484 1 4 -1.000000 2.257000 7.630000 1352.400000 # CANP RNA
485 1 1 -1.000000 -2.223000 7.640000 1355.200000 # AANQ RNA
486 1 1 -1.000000 -5.998000 5.228000 1358.000000 # AANR RNA
487 1 2 -1.000000 -7.872000 1.159000 1360.800000 # GANS RNA
488 1 2 -1.000000 -7.251000 -3.277000 1363.600000 # GANT RNA
489 1 2 -1.000000 -4.331000 -6.675000 1366.400000 # GANU RNA
490 1 1 -1.000000 -0.039000 -7.957000 1369.200000 # AANV RNA
491 1 1 -1.000000 4.266000 -6.717000 1372.000000 # AANW RNA
492 1 2 -1.000000 7.219000 -3.347000 1374.800000 # GANX RNA
493 1 2 -1.000000 7.883000 1.083000 1377.600000 # GANY RNA
494 1 3 -1.000000 6.049000 5.170000 1380.400000 # UANZ RNA
495 1 2 -1.000000 2.297000 7.618000 1383.200000 # GAN0 RNA
496 1 1 -1.000000 -2.183000 7.652000 1386.000000 # AAN1 RNA
497 1 3 -1.000000 -5.971000 5.260000 1388.800000 # UAN2 RNA
498 1 2 -1.000000 -7.866000 1.201000 1391.600000 # GAN3 RNA
499 1 1 -1.000000 -7.268000 -3.239000 1394.400000 # AAN4 RNA